<?xml version="1.0" encoding="UTF-8"?>

<!-- generated on 2025-04-23 11:11:51 by Eclipse SUMO GUI Version 1.22.0
<sumoConfiguration xmlns:xsi="http://www.w3.org/2001/XMLSchema-instance" xsi:noNamespaceSchemaLocation="http://sumo.dlr.de/xsd/sumoConfiguration.xsd">

    <input>
        <net-file value="cbd.net.xml"/>
        <route-files value="cbd.rou.xml"/>
        <additional-files value="cbd_detectors.add.xml"/>
    </input>

    <time>
        <begin value="0"/>
        <end value="21600"/>
        <step-length value="0.5"/>
    </time>

    <processing>
        <lateral-resolution value="0.8"/>
        <ignore-junction-blocker value="60"/>
        <collision.action value="warn"/>
        <time-to-teleport value="120"/>
    </processing>

    <report>
        <verbose value="true"/>
        <log value="simulation.log"/>
        <duration-log.statistics value="true"/>
    </report>

    <gui_only>
        <gui-settings-file value="cbd_gui.xml"/>
        <quit-on-end value="false"/>
        <start value="true"/>
    </gui_only>

</sumoConfiguration>
-->

<detector xmlns:xsi="http://www.w3.org/2001/XMLSchema-instance" xsi:noNamespaceSchemaLocation="http://sumo.dlr.de/xsd/det_e2_file.xsd">
   <interval begin="0.00" end="300.00" id="e1_flow" sampledSeconds="61.07" nVehEntered="17" nVehLeft="16" nVehSeen="17" meanSpeed="8.99" meanTimeLoss="1.36" meanOccupancy="1.71" maxOccupancy="20.00" meanMaxJamLengthInVehicles="0.01" meanMaxJamLengthInMeters="0.02" maxJamLengthInVehicles="1" maxJamLengthInMeters="5.00" jamLengthInVehiclesSum="3" jamLengthInMetersSum="13.86" meanHaltingDuration="1.38" maxHaltingDuration="1.50" haltingDurationSum="5.50" meanIntervalHaltingDuration="1.38" maxIntervalHaltingDuration="1.50" intervalHaltingDurationSum="5.50" startedHalts="4.00" meanVehicleNumber="0.22" maxVehicleNumber="2" />
   <interval begin="300.00" end="600.00" id="e1_flow" sampledSeconds="137.75" nVehEntered="20" nVehLeft="21" nVehSeen="21" meanSpeed="6.63" meanTimeLoss="3.36" meanOccupancy="4.05" maxOccupancy="20.00" meanMaxJamLengthInVehicles="0.09" meanMaxJamLengthInMeters="0.45" maxJamLengthInVehicles="2" maxJamLengthInMeters="12.02" jamLengthInVehiclesSum="54" jamLengthInMetersSum="269.41" meanHaltingDuration="3.65" maxHaltingDuration="13.00" haltingDurationSum="36.50" meanIntervalHaltingDuration="3.65" maxIntervalHaltingDuration="13.00" intervalHaltingDurationSum="36.50" startedHalts="10.00" meanVehicleNumber="0.49" maxVehicleNumber="2" />
   <interval begin="600.00" end="900.00" id="e1_flow" sampledSeconds="95.32" nVehEntered="21" nVehLeft="21" nVehSeen="21" meanSpeed="10.55" meanTimeLoss="0.88" meanOccupancy="2.87" maxOccupancy="20.00" meanMaxJamLengthInVehicles="0.00" meanMaxJamLengthInMeters="0.01" maxJamLengthInVehicles="1" maxJamLengthInMeters="5.00" jamLengthInVehiclesSum="1" jamLengthInMetersSum="5.00" meanHaltingDuration="1.50" maxHaltingDuration="1.50" haltingDurationSum="1.50" meanIntervalHaltingDuration="1.50" maxIntervalHaltingDuration="1.50" intervalHaltingDurationSum="1.50" startedHalts="1.00" meanVehicleNumber="0.34" maxVehicleNumber="2" />
   <interval begin="900.00" end="1200.00" id="e1_flow" sampledSeconds="100.12" nVehEntered="15" nVehLeft="15" nVehSeen="15" meanSpeed="7.81" meanTimeLoss="2.73" meanOccupancy="2.99" maxOccupancy="20.00" meanMaxJamLengthInVehicles="0.09" meanMaxJamLengthInMeters="0.44" maxJamLengthInVehicles="2" maxJamLengthInMeters="12.02" jamLengthInVehiclesSum="54" jamLengthInMetersSum="265.27" meanHaltingDuration="10.00" maxHaltingDuration="22.50" haltingDurationSum="30.00" meanIntervalHaltingDuration="10.00" maxIntervalHaltingDuration="22.50" intervalHaltingDurationSum="30.00" startedHalts="3.00" meanVehicleNumber="0.36" maxVehicleNumber="2" />
   <interval begin="1200.00" end="1500.00" id="e1_flow" sampledSeconds="165.41" nVehEntered="29" nVehLeft="27" nVehSeen="29" meanSpeed="8.93" meanTimeLoss="2.10" meanOccupancy="4.96" maxOccupancy="26.27" meanMaxJamLengthInVehicles="0.09" meanMaxJamLengthInMeters="0.38" maxJamLengthInVehicles="1" maxJamLengthInMeters="5.00" jamLengthInVehiclesSum="53" jamLengthInMetersSum="230.27" meanHaltingDuration="9.83" maxHaltingDuration="20.00" haltingDurationSum="29.50" meanIntervalHaltingDuration="9.83" maxIntervalHaltingDuration="20.00" intervalHaltingDurationSum="29.50" startedHalts="3.00" meanVehicleNumber="0.59" maxVehicleNumber="3" />
   <interval begin="1500.00" end="1800.00" id="e1_flow" sampledSeconds="173.61" nVehEntered="15" nVehLeft="17" nVehSeen="17" meanSpeed="4.90" meanTimeLoss="6.75" meanOccupancy="5.40" maxOccupancy="38.71" meanMaxJamLengthInVehicles="0.32" meanMaxJamLengthInMeters="2.01" maxJamLengthInVehicles="4" maxJamLengthInMeters="27.12" jamLengthInVehiclesSum="190" jamLengthInMetersSum="1205.98" meanHaltingDuration="26.50" maxHaltingDuration="41.00" haltingDurationSum="106.00" meanIntervalHaltingDuration="24.50" maxIntervalHaltingDuration="33.00" intervalHaltingDurationSum="98.00" startedHalts="3.00" meanVehicleNumber="0.60" maxVehicleNumber="4" />
   <interval begin="1800.00" end="2100.00" id="e1_flow" sampledSeconds="377.15" nVehEntered="26" nVehLeft="26" nVehSeen="26" meanSpeed="3.62" meanTimeLoss="10.65" meanOccupancy="11.87" maxOccupancy="68.71" meanMaxJamLengthInVehicles="0.73" meanMaxJamLengthInMeters="5.00" maxJamLengthInVehicles="7" maxJamLengthInMeters="49.65" jamLengthInVehiclesSum="440" jamLengthInMetersSum="3002.99" meanHaltingDuration="23.00" maxHaltingDuration="49.00" haltingDurationSum="230.00" meanIntervalHaltingDuration="23.00" maxIntervalHaltingDuration="49.00" intervalHaltingDurationSum="230.00" startedHalts="10.00" meanVehicleNumber="1.30" maxVehicleNumber="7" />
   <interval begin="2100.00" end="2400.00" id="e1_flow" sampledSeconds="88.00" nVehEntered="20" nVehLeft="20" nVehSeen="20" meanSpeed="12.32" meanTimeLoss="0.55" meanOccupancy="2.66" maxOccupancy="20.00" meanMaxJamLengthInVehicles="0.00" meanMaxJamLengthInMeters="0.00" maxJamLengthInVehicles="0" maxJamLengthInMeters="0.00" jamLengthInVehiclesSum="0" jamLengthInMetersSum="0.00" meanHaltingDuration="0.00" maxHaltingDuration="0.00" haltingDurationSum="0.00" meanIntervalHaltingDuration="0.00" maxIntervalHaltingDuration="0.00" intervalHaltingDurationSum="0.00" startedHalts="0.00" meanVehicleNumber="0.32" maxVehicleNumber="2" />
   <interval begin="2400.00" end="2700.00" id="e1_flow" sampledSeconds="199.48" nVehEntered="19" nVehLeft="19" nVehSeen="19" meanSpeed="5.05" meanTimeLoss="6.60" meanOccupancy="6.12" maxOccupancy="38.71" meanMaxJamLengthInVehicles="0.31" meanMaxJamLengthInMeters="1.92" maxJamLengthInVehicles="4" maxJamLengthInMeters="27.13" jamLengthInVehiclesSum="188" jamLengthInMetersSum="1154.91" meanHaltingDuration="19.80" maxHaltingDuration="36.00" haltingDurationSum="99.00" meanIntervalHaltingDuration="19.80" maxIntervalHaltingDuration="36.00" intervalHaltingDurationSum="99.00" startedHalts="5.00" meanVehicleNumber="0.69" maxVehicleNumber="4" />
   <interval begin="2700.00" end="3000.00" id="e1_flow" sampledSeconds="291.76" nVehEntered="31" nVehLeft="30" nVehSeen="31" meanSpeed="5.78" meanTimeLoss="5.45" meanOccupancy="8.97" maxOccupancy="48.71" meanMaxJamLengthInVehicles="0.39" meanMaxJamLengthInMeters="2.26" maxJamLengthInVehicles="5" maxJamLengthInMeters="34.70" jamLengthInVehiclesSum="232" jamLengthInMetersSum="1354.47" meanHaltingDuration="15.50" maxHaltingDuration="31.50" haltingDurationSum="124.00" meanIntervalHaltingDuration="15.50" maxIntervalHaltingDuration="31.50" intervalHaltingDurationSum="124.00" startedHalts="8.00" meanVehicleNumber="1.02" maxVehicleNumber="5" />
   <interval begin="3000.00" end="3300.00" id="e1_flow" sampledSeconds="51.61" nVehEntered="12" nVehLeft="13" nVehSeen="13" meanSpeed="13.12" meanTimeLoss="0.35" meanOccupancy="1.54" maxOccupancy="10.00" meanMaxJamLengthInVehicles="0.00" meanMaxJamLengthInMeters="0.00" maxJamLengthInVehicles="0" maxJamLengthInMeters="0.00" jamLengthInVehiclesSum="0" jamLengthInMetersSum="0.00" meanHaltingDuration="0.00" maxHaltingDuration="0.00" haltingDurationSum="0.00" meanIntervalHaltingDuration="0.00" maxIntervalHaltingDuration="0.00" intervalHaltingDurationSum="0.00" startedHalts="0.00" meanVehicleNumber="0.19" maxVehicleNumber="2" />
   <interval begin="3300.00" end="3600.00" id="e1_flow" sampledSeconds="256.91" nVehEntered="24" nVehLeft="24" nVehSeen="24" meanSpeed="4.93" meanTimeLoss="6.93" meanOccupancy="7.95" maxOccupancy="38.71" meanMaxJamLengthInVehicles="0.44" meanMaxJamLengthInMeters="2.79" maxJamLengthInVehicles="4" maxJamLengthInMeters="26.98" jamLengthInVehiclesSum="265" jamLengthInMetersSum="1674.95" meanHaltingDuration="27.50" maxHaltingDuration="43.00" haltingDurationSum="137.50" meanIntervalHaltingDuration="27.50" maxIntervalHaltingDuration="43.00" intervalHaltingDurationSum="137.50" startedHalts="5.00" meanVehicleNumber="0.89" maxVehicleNumber="4" />
   <interval begin="3600.00" end="3900.00" id="e1_flow" sampledSeconds="25.70" nVehEntered="6" nVehLeft="6" nVehSeen="6" meanSpeed="12.84" meanTimeLoss="0.18" meanOccupancy="0.77" maxOccupancy="20.00" meanMaxJamLengthInVehicles="0.00" meanMaxJamLengthInMeters="0.00" maxJamLengthInVehicles="0" maxJamLengthInMeters="0.00" jamLengthInVehiclesSum="0" jamLengthInMetersSum="0.00" meanHaltingDuration="0.00" maxHaltingDuration="0.00" haltingDurationSum="0.00" meanIntervalHaltingDuration="0.00" maxIntervalHaltingDuration="0.00" intervalHaltingDurationSum="0.00" startedHalts="0.00" meanVehicleNumber="0.10" maxVehicleNumber="2" />
   <interval begin="3900.00" end="4200.00" id="e1_flow" sampledSeconds="0.00" nVehEntered="0" nVehLeft="0" nVehSeen="0" meanSpeed="-1.00" meanTimeLoss="-1.00" meanOccupancy="0.00" maxOccupancy="0.00" meanMaxJamLengthInVehicles="0.00" meanMaxJamLengthInMeters="0.00" maxJamLengthInVehicles="0" maxJamLengthInMeters="0.00" jamLengthInVehiclesSum="0" jamLengthInMetersSum="0.00" meanHaltingDuration="0.00" maxHaltingDuration="0.00" haltingDurationSum="0.00" meanIntervalHaltingDuration="0.00" maxIntervalHaltingDuration="0.00" intervalHaltingDurationSum="0.00" startedHalts="0.00" meanVehicleNumber="0.00" maxVehicleNumber="0" />
   <interval begin="4200.00" end="4500.00" id="e1_flow" sampledSeconds="0.00" nVehEntered="0" nVehLeft="0" nVehSeen="0" meanSpeed="-1.00" meanTimeLoss="-1.00" meanOccupancy="0.00" maxOccupancy="0.00" meanMaxJamLengthInVehicles="0.00" meanMaxJamLengthInMeters="0.00" maxJamLengthInVehicles="0" maxJamLengthInMeters="0.00" jamLengthInVehiclesSum="0" jamLengthInMetersSum="0.00" meanHaltingDuration="0.00" maxHaltingDuration="0.00" haltingDurationSum="0.00" meanIntervalHaltingDuration="0.00" maxIntervalHaltingDuration="0.00" intervalHaltingDurationSum="0.00" startedHalts="0.00" meanVehicleNumber="0.00" maxVehicleNumber="0" />
   <interval begin="4500.00" end="4800.00" id="e1_flow" sampledSeconds="0.00" nVehEntered="0" nVehLeft="0" nVehSeen="0" meanSpeed="-1.00" meanTimeLoss="-1.00" meanOccupancy="0.00" maxOccupancy="0.00" meanMaxJamLengthInVehicles="0.00" meanMaxJamLengthInMeters="0.00" maxJamLengthInVehicles="0" maxJamLengthInMeters="0.00" jamLengthInVehiclesSum="0" jamLengthInMetersSum="0.00" meanHaltingDuration="0.00" maxHaltingDuration="0.00" haltingDurationSum="0.00" meanIntervalHaltingDuration="0.00" maxIntervalHaltingDuration="0.00" intervalHaltingDurationSum="0.00" startedHalts="0.00" meanVehicleNumber="0.00" maxVehicleNumber="0" />
   <interval begin="4800.00" end="5100.00" id="e1_flow" sampledSeconds="0.00" nVehEntered="0" nVehLeft="0" nVehSeen="0" meanSpeed="-1.00" meanTimeLoss="-1.00" meanOccupancy="0.00" maxOccupancy="0.00" meanMaxJamLengthInVehicles="0.00" meanMaxJamLengthInMeters="0.00" maxJamLengthInVehicles="0" maxJamLengthInMeters="0.00" jamLengthInVehiclesSum="0" jamLengthInMetersSum="0.00" meanHaltingDuration="0.00" maxHaltingDuration="0.00" haltingDurationSum="0.00" meanIntervalHaltingDuration="0.00" maxIntervalHaltingDuration="0.00" intervalHaltingDurationSum="0.00" startedHalts="0.00" meanVehicleNumber="0.00" maxVehicleNumber="0" />
   <interval begin="5100.00" end="5400.00" id="e1_flow" sampledSeconds="0.00" nVehEntered="0" nVehLeft="0" nVehSeen="0" meanSpeed="-1.00" meanTimeLoss="-1.00" meanOccupancy="0.00" maxOccupancy="0.00" meanMaxJamLengthInVehicles="0.00" meanMaxJamLengthInMeters="0.00" maxJamLengthInVehicles="0" maxJamLengthInMeters="0.00" jamLengthInVehiclesSum="0" jamLengthInMetersSum="0.00" meanHaltingDuration="0.00" maxHaltingDuration="0.00" haltingDurationSum="0.00" meanIntervalHaltingDuration="0.00" maxIntervalHaltingDuration="0.00" intervalHaltingDurationSum="0.00" startedHalts="0.00" meanVehicleNumber="0.00" maxVehicleNumber="0" />
   <interval begin="5400.00" end="5700.00" id="e1_flow" sampledSeconds="0.00" nVehEntered="0" nVehLeft="0" nVehSeen="0" meanSpeed="-1.00" meanTimeLoss="-1.00" meanOccupancy="0.00" maxOccupancy="0.00" meanMaxJamLengthInVehicles="0.00" meanMaxJamLengthInMeters="0.00" maxJamLengthInVehicles="0" maxJamLengthInMeters="0.00" jamLengthInVehiclesSum="0" jamLengthInMetersSum="0.00" meanHaltingDuration="0.00" maxHaltingDuration="0.00" haltingDurationSum="0.00" meanIntervalHaltingDuration="0.00" maxIntervalHaltingDuration="0.00" intervalHaltingDurationSum="0.00" startedHalts="0.00" meanVehicleNumber="0.00" maxVehicleNumber="0" />
   <interval begin="5700.00" end="6000.00" id="e1_flow" sampledSeconds="0.00" nVehEntered="0" nVehLeft="0" nVehSeen="0" meanSpeed="-1.00" meanTimeLoss="-1.00" meanOccupancy="0.00" maxOccupancy="0.00" meanMaxJamLengthInVehicles="0.00" meanMaxJamLengthInMeters="0.00" maxJamLengthInVehicles="0" maxJamLengthInMeters="0.00" jamLengthInVehiclesSum="0" jamLengthInMetersSum="0.00" meanHaltingDuration="0.00" maxHaltingDuration="0.00" haltingDurationSum="0.00" meanIntervalHaltingDuration="0.00" maxIntervalHaltingDuration="0.00" intervalHaltingDurationSum="0.00" startedHalts="0.00" meanVehicleNumber="0.00" maxVehicleNumber="0" />
   <interval begin="6000.00" end="6300.00" id="e1_flow" sampledSeconds="0.00" nVehEntered="0" nVehLeft="0" nVehSeen="0" meanSpeed="-1.00" meanTimeLoss="-1.00" meanOccupancy="0.00" maxOccupancy="0.00" meanMaxJamLengthInVehicles="0.00" meanMaxJamLengthInMeters="0.00" maxJamLengthInVehicles="0" maxJamLengthInMeters="0.00" jamLengthInVehiclesSum="0" jamLengthInMetersSum="0.00" meanHaltingDuration="0.00" maxHaltingDuration="0.00" haltingDurationSum="0.00" meanIntervalHaltingDuration="0.00" maxIntervalHaltingDuration="0.00" intervalHaltingDurationSum="0.00" startedHalts="0.00" meanVehicleNumber="0.00" maxVehicleNumber="0" />
   <interval begin="6300.00" end="6600.00" id="e1_flow" sampledSeconds="0.00" nVehEntered="0" nVehLeft="0" nVehSeen="0" meanSpeed="-1.00" meanTimeLoss="-1.00" meanOccupancy="0.00" maxOccupancy="0.00" meanMaxJamLengthInVehicles="0.00" meanMaxJamLengthInMeters="0.00" maxJamLengthInVehicles="0" maxJamLengthInMeters="0.00" jamLengthInVehiclesSum="0" jamLengthInMetersSum="0.00" meanHaltingDuration="0.00" maxHaltingDuration="0.00" haltingDurationSum="0.00" meanIntervalHaltingDuration="0.00" maxIntervalHaltingDuration="0.00" intervalHaltingDurationSum="0.00" startedHalts="0.00" meanVehicleNumber="0.00" maxVehicleNumber="0" />
   <interval begin="6600.00" end="6900.00" id="e1_flow" sampledSeconds="0.00" nVehEntered="0" nVehLeft="0" nVehSeen="0" meanSpeed="-1.00" meanTimeLoss="-1.00" meanOccupancy="0.00" maxOccupancy="0.00" meanMaxJamLengthInVehicles="0.00" meanMaxJamLengthInMeters="0.00" maxJamLengthInVehicles="0" maxJamLengthInMeters="0.00" jamLengthInVehiclesSum="0" jamLengthInMetersSum="0.00" meanHaltingDuration="0.00" maxHaltingDuration="0.00" haltingDurationSum="0.00" meanIntervalHaltingDuration="0.00" maxIntervalHaltingDuration="0.00" intervalHaltingDurationSum="0.00" startedHalts="0.00" meanVehicleNumber="0.00" maxVehicleNumber="0" />
   <interval begin="6900.00" end="7200.00" id="e1_flow" sampledSeconds="0.00" nVehEntered="0" nVehLeft="0" nVehSeen="0" meanSpeed="-1.00" meanTimeLoss="-1.00" meanOccupancy="0.00" maxOccupancy="0.00" meanMaxJamLengthInVehicles="0.00" meanMaxJamLengthInMeters="0.00" maxJamLengthInVehicles="0" maxJamLengthInMeters="0.00" jamLengthInVehiclesSum="0" jamLengthInMetersSum="0.00" meanHaltingDuration="0.00" maxHaltingDuration="0.00" haltingDurationSum="0.00" meanIntervalHaltingDuration="0.00" maxIntervalHaltingDuration="0.00" intervalHaltingDurationSum="0.00" startedHalts="0.00" meanVehicleNumber="0.00" maxVehicleNumber="0" />
   <interval begin="7200.00" end="7500.00" id="e1_flow" sampledSeconds="0.00" nVehEntered="0" nVehLeft="0" nVehSeen="0" meanSpeed="-1.00" meanTimeLoss="-1.00" meanOccupancy="0.00" maxOccupancy="0.00" meanMaxJamLengthInVehicles="0.00" meanMaxJamLengthInMeters="0.00" maxJamLengthInVehicles="0" maxJamLengthInMeters="0.00" jamLengthInVehiclesSum="0" jamLengthInMetersSum="0.00" meanHaltingDuration="0.00" maxHaltingDuration="0.00" haltingDurationSum="0.00" meanIntervalHaltingDuration="0.00" maxIntervalHaltingDuration="0.00" intervalHaltingDurationSum="0.00" startedHalts="0.00" meanVehicleNumber="0.00" maxVehicleNumber="0" />
   <interval begin="7500.00" end="7800.00" id="e1_flow" sampledSeconds="0.00" nVehEntered="0" nVehLeft="0" nVehSeen="0" meanSpeed="-1.00" meanTimeLoss="-1.00" meanOccupancy="0.00" maxOccupancy="0.00" meanMaxJamLengthInVehicles="0.00" meanMaxJamLengthInMeters="0.00" maxJamLengthInVehicles="0" maxJamLengthInMeters="0.00" jamLengthInVehiclesSum="0" jamLengthInMetersSum="0.00" meanHaltingDuration="0.00" maxHaltingDuration="0.00" haltingDurationSum="