<?xml version="1.0" encoding="UTF-8"?>

<!-- generated on 2025-04-23 11:11:51 by Eclipse SUMO GUI Version 1.22.0
<sumoConfiguration xmlns:xsi="http://www.w3.org/2001/XMLSchema-instance" xsi:noNamespaceSchemaLocation="http://sumo.dlr.de/xsd/sumoConfiguration.xsd">

    <input>
        <net-file value="cbd.net.xml"/>
        <route-files value="cbd.rou.xml"/>
        <additional-files value="cbd_detectors.add.xml"/>
    </input>

    <time>
        <begin value="0"/>
        <end value="21600"/>
        <step-length value="0.5"/>
    </time>

    <processing>
        <lateral-resolution value="0.8"/>
        <ignore-junction-blocker value="60"/>
        <collision.action value="warn"/>
        <time-to-teleport value="120"/>
    </processing>

    <report>
        <verbose value="true"/>
        <log value="simulation.log"/>
        <duration-log.statistics value="true"/>
    </report>

    <gui_only>
        <gui-settings-file value="cbd_gui.xml"/>
        <quit-on-end value="false"/>
        <start value="true"/>
    </gui_only>

</sumoConfiguration>
-->

<detector xmlns:xsi="http://www.w3.org/2001/XMLSchema-instance" xsi:noNamespaceSchemaLocation="http://sumo.dlr.de/xsd/det_e2_file.xsd">
   <interval begin="0.00" end="300.00" id="e9_flow" sampledSeconds="95.87" nVehEntered="26" nVehLeft="25" nVehSeen="26" meanSpeed="13.47" meanTimeLoss="0.15" meanOccupancy="2.87" maxOccupancy="23.64" meanMaxJamLengthInVehicles="0.00" meanMaxJamLengthInMeters="0.00" maxJamLengthInVehicles="0" maxJamLengthInMeters="0.00" jamLengthInVehiclesSum="0" jamLengthInMetersSum="0.00" meanHaltingDuration="0.00" maxHaltingDuration="0.00" haltingDurationSum="0.00" meanIntervalHaltingDuration="0.00" maxIntervalHaltingDuration="0.00" intervalHaltingDurationSum="0.00" startedHalts="0.00" meanVehicleNumber="0.36" maxVehicleNumber="3" />
   <interval begin="300.00" end="600.00" id="e9_flow" sampledSeconds="153.28" nVehEntered="31" nVehLeft="31" nVehSeen="32" meanSpeed="10.37" meanTimeLoss="1.19" meanOccupancy="4.55" maxOccupancy="29.12" meanMaxJamLengthInVehicles="0.03" meanMaxJamLengthInMeters="0.11" maxJamLengthInVehicles="1" maxJamLengthInMeters="4.81" jamLengthInVehiclesSum="16" jamLengthInMetersSum="68.30" meanHaltingDuration="3.67" maxHaltingDuration="7.00" haltingDurationSum="11.00" meanIntervalHaltingDuration="3.67" maxIntervalHaltingDuration="7.00" intervalHaltingDurationSum="11.00" startedHalts="3.00" meanVehicleNumber="0.56" maxVehicleNumber="3" />
   <interval begin="600.00" end="900.00" id="e9_flow" sampledSeconds="131.52" nVehEntered="31" nVehLeft="30" nVehSeen="32" meanSpeed="12.24" meanTimeLoss="0.37" meanOccupancy="3.97" maxOccupancy="30.00" meanMaxJamLengthInVehicles="0.00" meanMaxJamLengthInMeters="0.01" maxJamLengthInVehicles="1" maxJamLengthInMeters="4.65" jamLengthInVehiclesSum="1" jamLengthInMetersSum="4.65" meanHaltingDuration="1.50" maxHaltingDuration="1.50" haltingDurationSum="1.50" meanIntervalHaltingDuration="1.50" maxIntervalHaltingDuration="1.50" intervalHaltingDurationSum="1.50" startedHalts="1.00" meanVehicleNumber="0.47" maxVehicleNumber="3" />
   <interval begin="900.00" end="1200.00" id="e9_flow" sampledSeconds="146.30" nVehEntered="33" nVehLeft="35" nVehSeen="35" meanSpeed="11.23" meanTimeLoss="0.72" meanOccupancy="4.31" maxOccupancy="21.23" meanMaxJamLengthInVehicles="0.01" meanMaxJamLengthInMeters="0.04" maxJamLengthInVehicles="1" maxJamLengthInMeters="4.51" jamLengthInVehiclesSum="6" jamLengthInMetersSum="25.65" meanHaltingDuration="2.50" maxHaltingDuration="4.50" haltingDurationSum="5.00" meanIntervalHaltingDuration="1.75" maxIntervalHaltingDuration="3.00" intervalHaltingDurationSum="3.50" startedHalts="1.00" meanVehicleNumber="0.54" maxVehicleNumber="3" />
   <interval begin="1200.00" end="1500.00" id="e9_flow" sampledSeconds="181.52" nVehEntered="39" nVehLeft="39" nVehSeen="39" meanSpeed="10.94" meanTimeLoss="0.91" meanOccupancy="5.44" maxOccupancy="28.50" meanMaxJamLengthInVehicles="0.05" meanMaxJamLengthInMeters="0.23" maxJamLengthInVehicles="2" maxJamLengthInMeters="12.09" jamLengthInVehiclesSum="28" jamLengthInMetersSum="139.42" meanHaltingDuration="8.00" maxHaltingDuration="11.50" haltingDurationSum="16.00" meanIntervalHaltingDuration="8.00" maxIntervalHaltingDuration="11.50" intervalHaltingDurationSum="16.00" startedHalts="2.00" meanVehicleNumber="0.66" maxVehicleNumber="3" />
   <interval begin="1500.00" end="1800.00" id="e9_flow" sampledSeconds="109.47" nVehEntered="20" nVehLeft="20" nVehSeen="20" meanSpeed="9.68" meanTimeLoss="1.62" meanOccupancy="3.23" maxOccupancy="20.00" meanMaxJamLengthInVehicles="0.07" meanMaxJamLengthInMeters="0.28" maxJamLengthInVehicles="1" maxJamLengthInMeters="4.55" jamLengthInVehiclesSum="39" jamLengthInMetersSum="169.26" meanHaltingDuration="20.50" maxHaltingDuration="20.50" haltingDurationSum="20.50" meanIntervalHaltingDuration="20.50" maxIntervalHaltingDuration="20.50" intervalHaltingDurationSum="20.50" startedHalts="1.00" meanVehicleNumber="0.39" maxVehicleNumber="2" />
   <interval begin="1800.00" end="2100.00" id="e9_flow" sampledSeconds="185.80" nVehEntered="35" nVehLeft="35" nVehSeen="35" meanSpeed="9.66" meanTimeLoss="1.53" meanOccupancy="5.56" maxOccupancy="36.78" meanMaxJamLengthInVehicles="0.07" meanMaxJamLengthInMeters="0.32" maxJamLengthInVehicles="2" maxJamLengthInMeters="12.16" jamLengthInVehiclesSum="42" jamLengthInMetersSum="194.55" meanHaltingDuration="11.50" maxHaltingDuration="19.50" haltingDurationSum="23.00" meanIntervalHaltingDuration="11.50" maxIntervalHaltingDuration="19.50" intervalHaltingDurationSum="23.00" startedHalts="2.00" meanVehicleNumber="0.67" maxVehicleNumber="4" />
   <interval begin="2100.00" end="2400.00" id="e9_flow" sampledSeconds="150.31" nVehEntered="27" nVehLeft="27" nVehSeen="27" meanSpeed="9.52" meanTimeLoss="1.70" meanOccupancy="4.52" maxOccupancy="30.00" meanMaxJamLengthInVehicles="0.08" meanMaxJamLengthInMeters="0.45" maxJamLengthInVehicles="2" maxJamLengthInMeters="12.08" jamLengthInVehiclesSum="49" jamLengthInMetersSum="268.76" meanHaltingDuration="13.25" maxHaltingDuration="16.00" haltingDurationSum="26.50" meanIntervalHaltingDuration="13.25" maxIntervalHaltingDuration="16.00" intervalHaltingDurationSum="26.50" startedHalts="2.00" meanVehicleNumber="0.55" maxVehicleNumber="3" />
   <interval begin="2400.00" end="2700.00" id="e9_flow" sampledSeconds="119.61" nVehEntered="25" nVehLeft="23" nVehSeen="25" meanSpeed="10.50" meanTimeLoss="1.20" meanOccupancy="3.61" maxOccupancy="20.00" meanMaxJamLengthInVehicles="0.04" meanMaxJamLengthInMeters="0.19" maxJamLengthInVehicles="1" maxJamLengthInMeters="5.00" jamLengthInVehiclesSum="26" jamLengthInMetersSum="115.75" meanHaltingDuration="5.33" maxHaltingDuration="11.00" haltingDurationSum="16.00" meanIntervalHaltingDuration="5.33" maxIntervalHaltingDuration="11.00" intervalHaltingDurationSum="16.00" startedHalts="3.00" meanVehicleNumber="0.43" maxVehicleNumber="2" />
   <interval begin="2700.00" end="3000.00" id="e9_flow" sampledSeconds="152.16" nVehEntered="30" nVehLeft="31" nVehSeen="32" meanSpeed="10.52" meanTimeLoss="1.06" meanOccupancy="4.49" maxOccupancy="21.75" meanMaxJamLengthInVehicles="0.05" meanMaxJamLengthInMeters="0.21" maxJamLengthInVehicles="1" maxJamLengthInMeters="4.55" jamLengthInVehiclesSum="29" jamLengthInMetersSum="124.94" meanHaltingDuration="13.25" maxHaltingDuration="14.00" haltingDurationSum="26.50" meanIntervalHaltingDuration="7.75" maxIntervalHaltingDuration="12.50" intervalHaltingDurationSum="15.50" startedHalts="1.00" meanVehicleNumber="0.56" maxVehicleNumber="3" />
   <interval begin="3000.00" end="3300.00" id="e9_flow" sampledSeconds="139.07" nVehEntered="29" nVehLeft="29" nVehSeen="30" meanSpeed="11.18" meanTimeLoss="0.84" meanOccupancy="4.16" maxOccupancy="25.96" meanMaxJamLengthInVehicles="0.04" meanMaxJamLengthInMeters="0.19" maxJamLengthInVehicles="1" maxJamLengthInMeters="4.62" jamLengthInVehiclesSum="26" jamLengthInMetersSum="112.93" meanHaltingDuration="14.00" maxHaltingDuration="14.00" haltingDurationSum="14.00" meanIntervalHaltingDuration="14.00" maxIntervalHaltingDuration="14.00" intervalHaltingDurationSum="14.00" startedHalts="1.00" meanVehicleNumber="0.50" maxVehicleNumber="3" />
   <interval begin="3300.00" end="3600.00" id="e9_flow" sampledSeconds="194.38" nVehEntered="36" nVehLeft="37" nVehSeen="37" meanSpeed="9.15" meanTimeLoss="1.68" meanOccupancy="5.91" maxOccupancy="37.53" meanMaxJamLengthInVehicles="0.10" meanMaxJamLengthInMeters="0.56" maxJamLengthInVehicles="2" maxJamLengthInMeters="13.62" jamLengthInVehiclesSum="57" jamLengthInMetersSum="336.90" meanHaltingDuration="10.50" maxHaltingDuration="14.50" haltingDurationSum="31.50" meanIntervalHaltingDuration="10.50" maxIntervalHaltingDuration="14.50" intervalHaltingDurationSum="31.50" startedHalts="3.00" meanVehicleNumber="0.70" maxVehicleNumber="4" />
   <interval begin="3600.00" end="3900.00" id="e9_flow" sampledSeconds="32.92" nVehEntered="8" nVehLeft="8" nVehSeen="8" meanSpeed="13.37" meanTimeLoss="0.12" meanOccupancy="0.99" maxOccupancy="10.00" meanMaxJamLengthInVehicles="0.00" meanMaxJamLengthInMeters="0.00" maxJamLengthInVehicles="0" maxJamLengthInMeters="0.00" jamLengthInVehiclesSum="0" jamLengthInMetersSum="0.00" meanHaltingDuration="0.00" maxHaltingDuration="0.00" haltingDurationSum="0.00" meanIntervalHaltingDuration="0.00" maxIntervalHaltingDuration="0.00" intervalHaltingDurationSum="0.00" startedHalts="0.00" meanVehicleNumber="0.12" maxVehicleNumber="1" />
   <interval begin="3900.00" end="4200.00" id="e9_flow" sampledSeconds="0.00" nVehEntered="0" nVehLeft="0" nVehSeen="0" meanSpeed="-1.00" meanTimeLoss="-1.00" meanOccupancy="0.00" maxOccupancy="0.00" meanMaxJamLengthInVehicles="0.00" meanMaxJamLengthInMeters="0.00" maxJamLengthInVehicles="0" maxJamLengthInMeters="0.00" jamLengthInVehiclesSum="0" jamLengthInMetersSum="0.00" meanHaltingDuration="0.00" maxHaltingDuration="0.00" haltingDurationSum="0.00" meanIntervalHaltingDuration="0.00" maxIntervalHaltingDuration="0.00" intervalHaltingDurationSum="0.00" startedHalts="0.00" meanVehicleNumber="0.00" maxVehicleNumber="0" />
   <interval begin="4200.00" end="4500.00" id="e9_flow" sampledSeconds="0.00" nVehEntered="0" nVehLeft="0" nVehSeen="0" meanSpeed="-1.00" meanTimeLoss="-1.00" meanOccupancy="0.00" maxOccupancy="0.00" meanMaxJamLengthInVehicles="0.00" meanMaxJamLengthInMeters="0.00" maxJamLengthInVehicles="0" maxJamLengthInMeters="0.00" jamLengthInVehiclesSum="0" jamLengthInMetersSum="0.00" meanHaltingDuration="0.00" maxHaltingDuration="0.00" haltingDurationSum="0.00" meanIntervalHaltingDuration="0.00" maxIntervalHaltingDuration="0.00" intervalHaltingDurationSum="0.00" startedHalts="0.00" meanVehicleNumber="0.00" maxVehicleNumber="0" />
   <interval begin="4500.00" end="4800.00" id="e9_flow" sampledSeconds="0.00" nVehEntered="0" nVehLeft="0" nVehSeen="0" meanSpeed="-1.00" meanTimeLoss="-1.00" meanOccupancy="0.00" maxOccupancy="0.00" meanMaxJamLengthInVehicles="0.00" meanMaxJamLengthInMeters="0.00" maxJamLengthInVehicles="0" maxJamLengthInMeters="0.00" jamLengthInVehiclesSum="0" jamLengthInMetersSum="0.00" meanHaltingDuration="0.00" maxHaltingDuration="0.00" haltingDurationSum="0.00" meanIntervalHaltingDuration="0.00" maxIntervalHaltingDuration="0.00" intervalHaltingDurationSum="0.00" startedHalts="0.00" meanVehicleNumber="0.00" maxVehicleNumber="0" />
   <interval begin="4800.00" end="5100.00" id="e9_flow" sampledSeconds="0.00" nVehEntered="0" nVehLeft="0" nVehSeen="0" meanSpeed="-1.00" meanTimeLoss="-1.00" meanOccupancy="0.00" maxOccupancy="0.00" meanMaxJamLengthInVehicles="0.00" meanMaxJamLengthInMeters="0.00" maxJamLengthInVehicles="0" maxJamLengthInMeters="0.00" jamLengthInVehiclesSum="0" jamLengthInMetersSum="0.00" meanHaltingDuration="0.00" maxHaltingDuration="0.00" haltingDurationSum="0.00" meanIntervalHaltingDuration="0.00" maxIntervalHaltingDuration="0.00" intervalHaltingDurationSum="0.00" startedHalts="0.00" meanVehicleNumber="0.00" maxVehicleNumber="0" />
   <interval begin="5100.00" end="5400.00" id="e9_flow" sampledSeconds="0.00" nVehEntered="0" nVehLeft="0" nVehSeen="0" meanSpeed="-1.00" meanTimeLoss="-1.00" meanOccupancy="0.00" maxOccupancy="0.00" meanMaxJamLengthInVehicles="0.00" meanMaxJamLengthInMeters="0.00" maxJamLengthInVehicles="0" maxJamLengthInMeters="0.00" jamLengthInVehiclesSum="0" jamLengthInMetersSum="0.00" meanHaltingDuration="0.00" maxHaltingDuration="0.00" haltingDurationSum="0.00" meanIntervalHaltingDuration="0.00" maxIntervalHaltingDuration="0.00" intervalHaltingDurationSum="0.00" startedHalts="0.00" meanVehicleNumber="0.00" maxVehicleNumber="0" />
   <interval begin="5400.00" end="5700.00" id="e9_flow" sampledSeconds="0.00" nVehEntered="0" nVehLeft="0" nVehSeen="0" meanSpeed="-1.00" meanTimeLoss="-1.00" meanOccupancy="0.00" maxOccupancy="0.00" meanMaxJamLengthInVehicles="0.00" meanMaxJamLengthInMeters="0.00" maxJamLengthInVehicles="0" maxJamLengthInMeters="0.00" jamLengthInVehiclesSum="0" jamLengthInMetersSum="0.00" meanHaltingDuration="0.00" maxHaltingDuration="0.00" haltingDurationSum="0.00" meanIntervalHaltingDuration="0.00" maxIntervalHaltingDuration="0.00" intervalHaltingDurationSum="0.00" startedHalts="0.00" meanVehicleNumber="0.00" maxVehicleNumber="0" />
   <interval begin="5700.00" end="6000.00" id="e9_flow" sampledSeconds="0.00" nVehEntered="0" nVehLeft="0" nVehSeen="0" meanSpeed="-1.00" meanTimeLoss="-1.00" meanOccupancy="0.00" maxOccupancy="0.00" meanMaxJamLengthInVehicles="0.00" meanMaxJamLengthInMeters="0.00" maxJamLengthInVehicles="0" maxJamLengthInMeters="0.00" jamLengthInVehiclesSum="0" jamLengthInMetersSum="0.00" meanHaltingDuration="0.00" maxHaltingDuration="0.00" haltingDurationSum="0.00" meanIntervalHaltingDuration="0.00" maxIntervalHaltingDuration="0.00" intervalHaltingDurationSum="0.00" startedHalts="0.00" meanVehicleNumber="0.00" maxVehicleNumber="0" />
   <interval begin="6000.00" end="6300.00" id="e9_flow" sampledSeconds="0.00" nVehEntered="0" nVehLeft="0" nVehSeen="0" meanSpeed="-1.00" meanTimeLoss="-1.00" meanOccupancy="0.00" maxOccupancy="0.00" meanMaxJamLengthInVehicles="0.00" meanMaxJamLengthInMeters="0.00" maxJamLengthInVehicles="0" maxJamLengthInMeters="0.00" jamLengthInVehiclesSum="0" jamLengthInMetersSum="0.00" meanHaltingDuration="0.00" maxHaltingDuration="0.00" haltingDurationSum="0.00" meanIntervalHaltingDuration="0.00" maxIntervalHaltingDuration="0.00" intervalHaltingDurationSum="0.00" startedHalts="0.00" meanVehicleNumber="0.00" maxVehicleNumber="0" />
   <interval begin="6300.00" end="6600.00" id="e9_flow" sampledSeconds="0.00" nVehEntered="0" nVehLeft="0" nVehSeen="0" meanSpeed="-1.00" meanTimeLoss="-1.00" meanOccupancy="0.00" maxOccupancy="0.00" meanMaxJamLengthInVehicles="0.00" meanMaxJamLengthInMeters="0.00" maxJamLengthInVehicles="0" maxJamLengthInMeters="0.00" jamLengthInVehiclesSum="0" jamLengthInMetersSum="0.00" meanHaltingDuration="0.00" maxHaltingDuration="0.00" haltingDurationSum="0.00" meanIntervalHaltingDuration="0.00" maxIntervalHaltingDuration="0.00" intervalHaltingDurationSum="0.00" startedHalts="0.00" meanVehicleNumber="0.00" maxVehicleNumber="0" />
   <interval begin="6600.00" end="6900.00" id="e9_flow" sampledSeconds="0.00" nVehEntered="0" nVehLeft="0" nVehSeen="0" meanSpeed="-1.00" meanTimeLoss="-1.00" meanOccupancy="0.00" maxOccupancy="0.00" meanMaxJamLengthInVehicles="0.00" meanMaxJamLengthInMeters="0.00" maxJamLengthInVehicles="0" maxJamLengthInMeters="0.00" jamLengthInVehiclesSum="0" jamLengthInMetersSum="0.00" meanHaltingDuration="0.00" maxHaltingDuration="0.00" haltingDurationSum="0.00" meanIntervalHaltingDuration="0.00" maxIntervalHaltingDuration="0.00" intervalHaltingDurationSum="0.00" startedHalts="0.00" meanVehicleNumber="0.00" maxVehicleNumber="0" />
   <interval begin="6900.00" end="7200.00" id="e9_flow" sampledSeconds="0.00" nVehEntered="0" nVehLeft="0" nVehSeen="0" meanSpeed="-1.00" meanTimeLoss="-1.00" meanOccupancy="0.00" maxOccupancy="0.00" meanMaxJamLengthInVehicles="0.00" meanMaxJamLengthInMeters="0.00" maxJamLengthInVehicles="0" maxJamLengthInMeters="0.00" jamLengthInVehiclesSum="0" jamLengthInMetersSum="0.00" meanHaltingDuration="0.00" maxHaltingDuration="0.00" haltingDurationSum="0.00" meanIntervalHaltingDuration="0.00" maxIntervalHaltingDuration="0.00" intervalHaltingDurationSum="0.00" startedHalts="0.00" meanVehicleNumber="0.00" maxVehicleNumber="0" />
   <interval begin="7200.00" end="7500.00" id="e9_flow" sampledSeconds="0.00" nVehEntered="0" nVehLeft="0" nVehSeen="0" meanSpeed="-1.00" meanTimeLoss="-1.00" meanOccupancy="0.00" maxOccupancy="0.00" meanMaxJamLengthInVehicles="0.00" meanMaxJamLengthInMeters="0.00" maxJamLengthInVehicles="0" maxJamLengthInMeters="0.00" jamLengthInVehiclesSum="0" jamLengthInMetersSum="0.00" meanHaltingDuration="0.00" maxHaltingDuration="0.00" haltingDurationSum="0.00" meanIntervalHaltingDuration="0.00" maxIntervalHaltingDuration="0.00" intervalHaltingDurationSum="0.00" startedHalts="0.00" meanVehicleNumber="0.00" maxVehicleNumber="0" />
   <interval begin="7500.00" end="7800.00" id="e9_flow" sampledSeconds="0.00" nVehEntered="0" nVehLeft="0" nVehSeen="0" meanSpeed="-1.00" meanTimeLoss="-1.00" meanOccupancy="0.00" maxOccupancy="0.00" meanMaxJamLengthInVehicles="0.00" meanMaxJamLengthInMeters="0.00" maxJamLengthInVehicles="0" maxJamLengthInMeters="0.00" jamLengthInVehiclesSum="0" jamLengthInMetersSum="0.00" meanHaltingDuration="0.00" maxHaltingDuration="0.00" haltingDurationSum="